<?xml version="1.0" encoding="UTF-8"?>

<!-- generated on Saturday 01 July 2017 12:48:03 AM IST by SUMO gui Version 0.28.0
<?xml version="1.0" encoding="UTF-8"?>

<configuration xmlns:xsi="http://www.w3.org/2001/XMLSchema-instance" xsi:noNamespaceSchemaLocation="http://sumo.dlr.de/xsd/sumo-gui.exeConfiguration.xsd">

    <input>
        <net-file value="bangalore.net.xml"/>
        <route-files value="bangalore.rou.xml"/>
        <additional-files value="bangalore.poly.xml,bangalore.det.xml"/>
    </input>

    <time>
        <begin value="0"/>
        <end value="1000"/>
    </time>

    <traci_server>
        <remote-port value="51691"/>
    </traci_server>

    <gui_only>
        <start value="true"/>
    </gui_only>

</configuration>
-->

<detector xmlns:xsi="http://www.w3.org/2001/XMLSchema-instance" xsi:noNamespaceSchemaLocation="http://sumo.dlr.de/xsd/det_e1_file.xsd">
    <interval begin="0.00" end="100.00" id="-143548724#0_0loop" nVehContrib="8" flow="288.00" occupancy="14.34" speed="7.94" length="5.00" nVehEntered="8"/>
    <interval begin="0.00" end="100.00" id="-143548724#1_0loop" nVehContrib="3" flow="108.00" occupancy="1.41" speed="12.52" length="5.00" nVehEntered="4"/>
    <interval begin="0.00" end="100.00" id="-43317278#0_0loop" nVehContrib="0" flow="0.00" occupancy="0.00" speed="-1.00" length="-1.00" nVehEntered="0"/>
    <interval begin="0.00" end="100.00" id="-43317278#1_0loop" nVehContrib="7" flow="252.00" occupancy="2.85" speed="13.56" length="5.00" nVehEntered="8"/>
    <interval begin="0.00" end="100.00" id="-43317278#2_0loop" nVehContrib="5" flow="180.00" occupancy="2.12" speed="11.94" length="5.00" nVehEntered="5"/>
    <interval begin="0.00" end="100.00" id="-44710595#0_0loop" nVehContrib="4" flow="144.00" occupancy="2.39" speed="9.87" length="5.00" nVehEntered="5"/>
    <interval begin="0.00" end="100.00" id="-44710595#1_0loop" nVehContrib="4" flow="144.00" occupancy="5.14" speed="5.23" length="5.00" nVehEntered="4"/>
    <interval begin="0.00" end="100.00" id="-44710595#2_0loop" nVehContrib="0" flow="0.00" occupancy="0.00" speed="-1.00" length="-1.00" nVehEntered="0"/>
    <interval begin="0.00" end="100.00" id="-44710596_0loop" nVehContrib="9" flow="324.00" occupancy="3.45" speed="13.08" length="5.00" nVehEntered="9"/>
    <interval begin="0.00" end="100.00" id="-44710599#0_0loop" nVehContrib="0" flow="0.00" occupancy="0.00" speed="-1.00" length="-1.00" nVehEntered="0"/>
    <interval begin="0.00" end="100.00" id="-44710599#1_0loop" nVehContrib="4" flow="144.00" occupancy="1.49" speed="13.47" length="5.00" nVehEntered="4"/>
    <interval begin="0.00" end="100.00" id="-44710599#2_0loop" nVehContrib="5" flow="180.00" occupancy="4.57" speed="7.24" length="5.00" nVehEntered="5"/>
    <interval begin="0.00" end="100.00" id="-44710599#3_0loop" nVehContrib="4" flow="144.00" occupancy="4.81" speed="5.98" length="5.00" nVehEntered="4"/>
    <interval begin="0.00" end="100.00" id="-44710599#4_0loop" nVehContrib="6" flow="216.00" occupancy="2.26" speed="13.30" length="5.00" nVehEntered="6"/>
    <interval begin="0.00" end="100.00" id="-44710602#0_0loop" nVehContrib="4" flow="144.00" occupancy="2.00" speed="10.82" length="5.00" nVehEntered="5"/>
    <interval begin="0.00" end="100.00" id="-44710602#1_0loop" nVehContrib="6" flow="216.00" occupancy="2.25" speed="13.37" length="5.00" nVehEntered="6"/>
    <interval begin="0.00" end="100.00" id="-44710603#0_0loop" nVehContrib="2" flow="72.00" occupancy="1.01" speed="13.58" length="5.00" nVehEntered="3"/>
    <interval begin="0.00" end="100.00" id="-44710603#1_0loop" nVehContrib="8" flow="288.00" occupancy="3.01" speed="13.32" length="5.00" nVehEntered="8"/>
    <interval begin="0.00" end="100.00" id="143548724#0_0loop" nVehContrib="5" flow="180.00" occupancy="2.74" speed="9.53" length="5.00" nVehEntered="5"/>
    <interval begin="0.00" end="100.00" id="143548724#1_0loop" nVehContrib="6" flow="216.00" occupancy="2.32" speed="12.97" length="5.00" nVehEntered="6"/>
    <interval begin="0.00" end="100.00" id="43317278#0_0loop" nVehContrib="3" flow="108.00" occupancy="1.12" speed="13.41" length="5.00" nVehEntered="3"/>
    <interval begin="0.00" end="100.00" id="43317278#1_0loop" nVehContrib="10" flow="360.00" occupancy="3.98" speed="13.39" length="5.00" nVehEntered="11"/>
    <interval begin="0.00" end="100.00" id="43317278#2_0loop" nVehContrib="10" flow="360.00" occupancy="8.24" speed="9.56" length="5.00" nVehEntered="11"/>
    <interval begin="0.00" end="100.00" id="44710595#0_0loop" nVehContrib="9" flow="324.00" occupancy="4.37" speed="11.09" length="5.00" nVehEntered="9"/>
    <interval begin="0.00" end="100.00" id="44710595#1_0loop" nVehContrib="2" flow="72.00" occupancy="0.89" speed="11.57" length="5.00" nVehEntered="2"/>
    <interval begin="0.00" end="100.00" id="44710595#2_0loop" nVehContrib="0" flow="0.00" occupancy="0.00" speed="-1.00" length="-1.00" nVehEntered="0"/>
    <interval begin="0.00" end="100.00" id="44710596_0loop" nVehContrib="6" flow="216.00" occupancy="2.24" speed="13.41" length="5.00" nVehEntered="6"/>
    <interval begin="0.00" end="100.00" id="44710599#0_0loop" nVehContrib="2" flow="72.00" occupancy="0.75" speed="13.39" length="5.00" nVehEntered="2"/>
    <interval begin="0.00" end="100.00" id="44710599#1_0loop" nVehContrib="7" flow="252.00" occupancy="2.66" speed="13.16" length="5.00" nVehEntered="7"/>
    <interval begin="0.00" end="100.00" id="44710599#2_0loop" nVehContrib="3" flow="108.00" occupancy="1.34" speed="11.27" length="5.00" nVehEntered="3"/>
    <interval begin="0.00" end="100.00" id="44710599#3_0loop" nVehContrib="2" flow="72.00" occupancy="0.96" speed="10.80" length="5.00" nVehEntered="2"/>
    <interval begin="0.00" end="100.00" id="44710599#4_0loop" nVehContrib="0" flow="0.00" occupancy="0.00" speed="-1.00" length="-1.00" nVehEntered="0"/>
    <interval begin="0.00" end="100.00" id="44710602#0_0loop" nVehContrib="5" flow="180.00" occupancy="2.87" speed="9.53" length="5.00" nVehEntered="5"/>
    <interval begin="0.00" end="100.00" id="44710602#1_0loop" nVehContrib="7" flow="252.00" occupancy="2.67" speed="13.10" length="5.00" nVehEntered="7"/>
    <interval begin="0.00" end="100.00" id="44710603#0_0loop" nVehContrib="3" flow="108.00" occupancy="1.12" speed="13.46" length="5.00" nVehEntered="3"/>
    <interval begin="0.00" end="100.00" id="44710603#1_0loop" nVehContrib="7" flow="252.00" occupancy="2.70" speed="12.96" length="5.00" nVehEntered="7"/>
    <interval begin="0.00" end="100.00" id=":1570881873_0_0loop" nVehContrib="0" flow="0.00" occupancy="0.00" speed="-1.00" length="-1.00" nVehEntered="0"/>
    <interval begin="0.00" end="100.00" id=":1570881873_10_0loop" nVehContrib="1" flow="36.00" occupancy="0.74" speed="6.74" length="5.00" nVehEntered="1"/>
    <interval begin="0.00" end="100.00" id=":1570881873_11_0loop" nVehContrib="0" flow="0.00" occupancy="0.00" speed="-1.00" length="-1.00" nVehEntered="0"/>
    <interval begin="0.00" end="100.00" id=":1570881873_12_0loop" nVehContrib="0" flow="0.00" occupancy="0.00" speed="-1.00" length="-1.00" nVehEntered="0"/>
    <interval begin="0.00" end="100.00" id=":1570881873_1_0loop" nVehContrib="1" flow="36.00" occupancy="0.82" speed="6.11" length="5.00" nVehEntered="1"/>
    <interval begin="0.00" end="100.00" id=":1570881873_2_0loop" nVehContrib="1" flow="36.00" occupancy="0.80" speed="6.28" length="5.00" nVehEntered="1"/>
    <interval begin="0.00" end="100.00" id=":1570881873_3_0loop" nVehContrib="0" flow="0.00" occupancy="0.00" speed="-1.00" length="-1.00" nVehEntered="0"/>
    <interval begin="0.00" end="100.00" id=":1570881873_4_0loop" nVehContrib="4" flow="144.00" occupancy="3.93" speed="5.82" length="5.00" nVehEntered="4"/>
    <interval begin="0.00" end="100.00" id=":1570881873_5_0loop" nVehContrib="0" flow="0.00" occupancy="0.00" speed="-1.00" length="-1.00" nVehEntered="0"/>
    <interval begin="0.00" end="100.00" id=":1570881873_6_0loop" nVehContrib="2" flow="72.00" occupancy="1.57" speed="7.24" length="5.00" nVehEntered="2"/>
    <interval begin="0.00" end="100.00" id=":1570881873_7_0loop" nVehContrib="0" flow="0.00" occupancy="0.00" speed="-1.00" length="-1.00" nVehEntered="0"/>
    <interval begin="0.00" end="100.00" id=":1570881873_8_0loop" nVehContrib="0" flow="0.00" occupancy="0.00" speed="-1.00" length="-1.00" nVehEntered="0"/>
    <interval begin="0.00" end="100.00" id=":1570881873_9_0loop" nVehContrib="1" flow="36.00" occupancy="0.66" speed="7.55" length="5.00" nVehEntered="1"/>
    <interval begin="0.00" end="100.00" id=":1570881882_0_0loop" nVehContrib="0" flow="0.00" occupancy="0.00" speed="-1.00" length="-1.00" nVehEntered="0"/>
    <interval begin="0.00" end="100.00" id=":544376615_0_0loop" nVehContrib="0" flow="0.00" occupancy="0.00" speed="-1.00" length="-1.00" nVehEntered="0"/>
    <interval begin="0.00" end="100.00" id=":544376747_0_0loop" nVehContrib="0" flow="0.00" occupancy="0.00" speed="-1.00" length="-1.00" nVehEntered="0"/>
    <interval begin="0.00" end="100.00" id=":544376753_0_0loop" nVehContrib="8" flow="288.00" occupancy="3.79" speed="11.18" length="5.00" nVehEntered="8"/>
    <interval begin="0.00" end="100.00" id=":544376753_10_0loop" nVehContrib="0" flow="0.00" occupancy="0.00" speed="-1.00" length="-1.00" nVehEntered="0"/>
    <interval begin="0.00" end="100.00" id=":544376753_11_0loop" nVehContrib="2" flow="72.00" occupancy="1.61" speed="6.58" length="5.00" nVehEntered="2"/>
    <interval begin="0.00" end="100.00" id=":544376753_12_0loop" nVehContrib="1" flow="36.00" occupancy="0.75" speed="6.67" length="5.00" nVehEntered="1"/>
    <interval begin="0.00" end="100.00" id=":544376753_1_0loop" nVehContrib="0" flow="0.00" occupancy="0.00" speed="-1.00" length="-1.00" nVehEntered="0"/>
    <interval begin="0.00" end="100.00" id=":544376753_2_0loop" nVehContrib="0" flow="0.00" occupancy="0.00" speed="-1.00" length="-1.00" nVehEntered="0"/>
    <interval begin="0.00" end="100.00" id=":544376753_3_0loop" nVehContrib="1" flow="36.00" occupancy="0.50" speed="10.07" length="5.00" nVehEntered="1"/>
    <interval begin="0.00" end="100.00" id=":544376753_4_0loop" nVehContrib="4" flow="144.00" occupancy="1.92" speed="11.00" length="5.00" nVehEntered="4"/>
    <interval begin="0.00" end="100.00" id=":544376753_5_0loop" nVehContrib="2" flow="72.00" occupancy="1.89" speed="5.83" length="5.00" nVehEntered="2"/>
    <interval begin="0.00" end="100.00" id=":544376753_6_0loop" nVehContrib="1" flow="36.00" occupancy="0.50" speed="9.91" length="5.00" nVehEntered="1"/>
    <interval begin="0.00" end="100.00" id=":544376753_7_0loop" nVehContrib="2" flow="72.00" occupancy="1.41" speed="7.36" length="5.00" nVehEntered="2"/>
    <interval begin="0.00" end="100.00" id=":544376753_8_0loop" nVehContrib="1" flow="36.00" occupancy="0.89" speed="5.65" length="5.00" nVehEntered="1"/>
    <interval begin="0.00" end="100.00" id=":544376753_9_0loop" nVehContrib="0" flow="0.00" occupancy="0.00" speed="-1.00" length="-1.00" nVehEntered="0"/>
    <interval begin="0.00" end="100.00" id=":544376755_0_0loop" nVehContrib="1" flow="36.00" occupancy="0.37" speed="13.65" length="5.00" nVehEntered="1"/>
    <interval begin="0.00" end="100.00" id=":544376755_10_0loop" nVehContrib="0" flow="0.00" occupancy="0.00" speed="-1.00" length="-1.00" nVehEntered="0"/>
    <interval begin="0.00" end="100.00" id=":544376755_11_0loop" nVehContrib="0" flow="0.00" occupancy="0.00" speed="-1.00" length="-1.00" nVehEntered="0"/>
    <interval begin="0.00" end="100.00" id=":544376755_12_0loop" nVehContrib="0" flow="0.00" occupancy="0.00" speed="-1.00" length="-1.00" nVehEntered="0"/>
    <interval begin="0.00" end="100.00" id=":544376755_13_0loop" nVehContrib="0" flow="0.00" occupancy="0.00" speed="-1.00" length="-1.00" nVehEntered="0"/>
    <interval begin="0.00" end="100.00" id=":544376755_14_0loop" nVehContrib="2" flow="72.00" occupancy="0.97" speed="10.71" length="5.00" nVehEntered="2"/>
    <interval begin="0.00" end="100.00" id=":544376755_15_0loop" nVehContrib="1" flow="36.00" occupancy="0.59" speed="8.51" length="5.00" nVehEntered="1"/>
    <interval begin="0.00" end="100.00" id=":544376755_16_0loop" nVehContrib="1" flow="36.00" occupancy="0.99" speed="5.05" length="5.00" nVehEntered="1"/>
    <interval begin="0.00" end="100.00" id=":544376755_17_0loop" nVehContrib="0" flow="0.00" occupancy="0.00" speed="-1.00" length="-1.00" nVehEntered="0"/>
    <interval begin="0.00" end="100.00" id=":544376755_18_0loop" nVehContrib="0" flow="0.00" occupancy="0.00" speed="-1.00" length="-1.00" nVehEntered="0"/>
    <interval begin="0.00" end="100.00" id=":544376755_19_0loop" nVehContrib="0" flow="0.00" occupancy="0.00" speed="-1.00" length="-1.00" nVehEntered="0"/>
    <interval begin="0.00" end="100.00" id=":544376755_1_0loop" nVehContrib="2" flow="72.00" occupancy="0.76" speed="13.08" length="5.00" nVehEntered="2"/>
    <interval begin="0.00" end="100.00" id=":544376755_20_0loop" nVehContrib="0" flow="0.00" occupancy="0.00" speed="-1.00" length="-1.00" nVehEntered="0"/>
    <interval begin="0.00" end="100.00" id=":544376755_21_0loop" nVehContrib="0" flow="0.00" occupancy="0.00" speed="-1.00" length="-1.00" nVehEntered="0"/>
    <interval begin="0.00" end="100.00" id=":544376755_22_0loop" nVehContrib="2" flow="72.00" occupancy="0.94" speed="10.91" length="5.00" nVehEntered="2"/>
    <interval begin="0.00" end="100.00" id=":544376755_23_0loop" nVehContrib="1" flow="36.00" occupancy="0.56" speed="8.98" length="5.00" nVehEntered="1"/>
    <interval begin="0.00" end="100.00" id=":544376755_2_0loop" nVehContrib="1" flow="36.00" occupancy="1.10" speed="4.53" length="5.00" nVehEntered="1"/>
    <interval begin="0.00" end="100.00" id=":544376755_3_0loop" nVehContrib="0" flow="0.00" occupancy="0.00" speed="-1.00" length="-1.00" nVehEntered="0"/>
    <interval begin="0.00" end="100.00" id=":544376755_4_0loop" nVehContrib="1" flow="36.00" occupancy="0.55" speed="9.13" length="5.00" nVehEntered="1"/>
    <interval begin="0.00" end="100.00" id=":544376755_5_0loop" nVehContrib="2" flow="72.00" occupancy="1.50" speed="6.73" length="5.00" nVehEntered="2"/>
    <interval begin="0.00" end="100.00" id=":544376755_6_0loop" nVehContrib="0" flow="0.00" occupancy="0.00" speed="-1.00" length="-1.00" nVehEntered="0"/>
    <interval begin="0.00" end="100.00" id=":544376755_7_0loop" nVehContrib="0" flow="0.00" occupancy="0.00" speed="-1.00" length="-1.00" nVehEntered="0"/>
    <interval begin="0.00" end="100.00" id=":544376755_8_0loop" nVehContrib="0" flow="0.00" occupancy="0.00" speed="-1.00" length="-1.00" nVehEntered="0"/>
    <interval begin="0.00" end="100.00" id=":544376755_9_0loop" nVehContrib="3" flow="108.00" occupancy="1.31" speed="11.97" length="5.00" nVehEntered="3"/>
    <interval begin="0.00" end="100.00" id=":544376756_0_0loop" nVehContrib="3" flow="108.00" occupancy="1.94" speed="7.86" length="5.00" nVehEntered="3"/>
    <interval begin="0.00" end="100.00" id=":544376756_10_0loop" nVehContrib="0" flow="0.00" occupancy="0.00" speed="-1.00" length="-1.00" nVehEntered="0"/>
    <interval begin="0.00" end="100.00" id=":544376756_11_0loop" nVehContrib="0" flow="0.00" occupancy="0.00" speed="-1.00" length="-1.00" nVehEntered="0"/>
    <interval begin="0.00" end="100.00" id=":544376756_12_0loop" nVehContrib="0" flow="0.00" occupancy="0.00" speed="-1.00" length="-1.00" nVehEntered="0"/>
    <interval begin="0.00" end="100.00" id=":544376756_1_0loop" nVehContrib="0" flow="0.00" occupancy="0.00" speed="-1.00" length="-1.00" nVehEntered="0"/>
    <interval begin="0.00" end="100.00" id=":544376756_2_0loop" nVehContrib="0" flow="0.00" occupancy="0.00" speed="-1.00" length="-1.00" nVehEntered="0"/>
    <interval begin="0.00" end="100.00" id=":544376756_3_0loop" nVehContrib="1" flow="36.00" occupancy="0.63" speed="7.92" length="5.00" nVehEntered="1"/>
    <interval begin="0.00" end="100.00" id=":544376756_4_0loop" nVehContrib="3" flow="108.00" occupancy="1.79" speed="8.92" length="5.00" nVehEntered="3"/>
    <interval begin="0.00" end="100.00" id=":544376756_5_0loop" nVehContrib="0" flow="0.00" occupancy="0.00" speed="-1.00" length="-1.00" nVehEntered="0"/>
    <interval begin="0.00" end="100.00" id=":544376756_6_0loop" nVehContrib="2" flow="72.00" occupancy="0.74" speed="13.48" length="5.00" nVehEntered="2"/>
    <interval begin="0.00" end="100.00" id=":544376756_7_0loop" nVehContrib="0" flow="0.00" occupancy="0.00" speed="-1.00" length="-1.00" nVehEntered="0"/>
    <interval begin="0.00" end="100.00" id=":544376756_8_0loop" nVehContrib="0" flow="0.00" occupancy="0.00" speed="-1.00" length="-1.00" nVehEntered="0"/>
    <interval begin="0.00" end="100.00" id=":544376756_9_0loop" nVehContrib="0" flow="0.00" occupancy="0.00" speed="-1.00" length="-1.00" nVehEntered="0"/>
    <interval begin="0.00" end="100.00" id=":567309180_0_0loop" nVehContrib="1" flow="36.00" occupancy="0.60" speed="8.29" length="5.00" nVehEntered="1"/>
    <interval begin="0.00" end="100.00" id=":567309180_10_0loop" nVehContrib="0" flow="0.00" occupancy="0.00" speed="-1.00" length="-1.00" nVehEntered="0"/>
    <interval begin="0.00" end="100.00" id=":567309180_11_0loop" nVehContrib="1" flow="36.00" occupancy="0.75" speed="6.70" length="5.00" nVehEntered="1"/>
    <interval begin="0.00" end="100.00" id=":567309180_12_0loop" nVehContrib="2" flow="72.00" occupancy="1.61" speed="6.56" length="5.00" nVehEntered="2"/>
    <interval begin="0.00" end="100.00" id=":567309180_1_0loop" nVehContrib="2" flow="72.00" occupancy="7.17" speed="4.94" length="5.00" nVehEntered="2"/>
    <interval begin="0.00" end="100.00" id=":567309180_2_0loop" nVehContrib="0" flow="0.00" occupancy="0.00" speed="-1.00" length="-1.00" nVehEntered="0"/>
    <interval begin="0.00" end="100.00" id=":567309180_3_0loop" nVehContrib="0" flow="0.00" occupancy="0.00" speed="-1.00" length="-1.00" nVehEntered="0"/>
    <interval begin="0.00" end="100.00" id=":567309180_4_0loop" nVehContrib="2" flow="72.00" occupancy="0.74" speed="13.51" length="5.00" nVehEntered="2"/>
    <interval begin="0.00" end="100.00" id=":567309180_5_0loop" nVehContrib="1" flow="36.00" occupancy="0.79" speed="6.31" length="5.00" nVehEntered="1"/>
    <interval begin="0.00" end="100.00" id=":567309180_6_0loop" nVehContrib="5" flow="180.00" occupancy="2.31" speed="11.45" length="5.00" nVehEntered="5"/>
    <interval begin="0.00" end="100.00" id=":567309180_7_0loop" nVehContrib="0" flow="0.00" occupancy="0.00" speed="-1.00" length="-1.00" nVehEntered="0"/>
    <interval begin="0.00" end="100.00" id=":567309180_8_0loop" nVehContrib="2" flow="72.00" occupancy="1.76" speed="6.21" length="5.00" nVehEntered="2"/>
    <interval begin="0.00" end="100.00" id=":567309180_9_0loop" nVehContrib="2" flow="72.00" occupancy="1.58" speed="7.77" length="5.00" nVehEntered="2"/>
    <interval begin="0.00" end="100.00" id=":567309182_0_0loop" nVehContrib="7" flow="252.00" occupancy="3.19" speed="11.60" length="5.00" nVehEntered="7"/>
    <interval begin="0.00" end="100.00" id=":567309182_10_0loop" nVehContrib="0" flow="0.00" occupancy="0.00" speed="-1.00" length="-1.00" nVehEntered="0"/>
    <interval begin="0.00" end="100.00" id=":567309182_11_0loop" nVehContrib="0" flow="0.00" occupancy="0.00" speed="-1.00" length="-1.00" nVehEntered="0"/>
    <interval begin="0.00" end="100.00" id=":567309182_12_0loop" nVehContrib="2" flow="72.00" occupancy="1.40" speed="7.26" length="5.00" nVehEntered="2"/>
    <interval begin="0.00" end="100.00" id=":567309182_1_0loop" nVehContrib="2" flow="72.00" occupancy="1.16" speed="9.99" length="5.00" nVehEntered="2"/>
    <interval begin="0.00" end="100.00" id=":567309182_2_0loop" nVehContrib="0" flow="0.00" occupancy="0.00" speed="-1.00" length="-1.00" nVehEntered="0"/>
    <interval begin="0.00" end="100.00" id=":567309182_3_0loop" nVehContrib="2" flow="72.00" occupancy="1.93" speed="6.86" length="5.00" nVehEntered="3"/>
    <interval begin="0.00" end="100.00" id=":567309182_4_0loop" nVehContrib="0" flow="0.00" occupancy="0.00" speed="-1.00" length="-1.00" nVehEntered="0"/>
    <interval begin="0.00" end="100.00" id=":567309182_5_0loop" nVehContrib="0" flow="0.00" occupancy="0.00" speed="-1.00" length="-1.00" nVehEntered="0"/>
    <interval begin="0.00" end="100.00" id=":567309182_6_0loop" nVehContrib="0" flow="0.00" occupancy="0.00" speed="-1.00" length="-1.00" nVehEntered="0"/>
    <interval begin="0.00" end="100.00" id=":567309182_7_0loop" nVehContrib="2" flow="72.00" occupancy="1.27" speed="9.19" length="5.00" nVehEntered="2"/>
    <interval begin="0.00" end="100.00" id=":567309182_8_0loop" nVehContrib="2" flow="72.00" occupancy="1.46" speed="7.04" length="5.00" nVehEntered="2"/>
    <interval begin="0.00" end="100.00" id=":567309182_9_0loop" nVehContrib="0" flow="0.00" occupancy="0.00" speed="-1.00" length="-1.00" nVehEntered="0"/>
    <interval begin="0.00" end="100.00" id=":567309184_0_0loop" nVehContrib="2" flow="72.00" occupancy="1.06" speed="10.14" length="5.00" nVehEntered="2"/>
    <interval begin="0.00" end="100.00" id=":567309184_10_0loop" nVehContrib="0" flow="0.00" occupancy="0.00" speed="-1.00" length="-1.00" nVehEntered="0"/>
    <interval begin="0.00" end="100.00" id=":567309184_11_0loop" nVehContrib="0" flow="0.00" occupancy="0.00" speed="-1.00" length="-1.00" nVehEntered="0"/>
    <interval begin="0.00" end="100.00" id=":567309184_12_0loop" nVehContrib="2" flow="72.00" occupancy="1.32" speed="7.67" length="5.00" nVehEntered="2"/>
    <interval begin="0.00" end="100.00" id=":567309184_1_0loop" nVehContrib="0" flow="0.00" occupancy="0.00" speed="-1.00" length="-1.00" nVehEntered="0"/>
    <interval begin="0.00" end="100.00" id=":567309184_2_0loop" nVehContrib="0" flow="0.00" occupancy="0.00" speed="-1.00" length="-1.00" nVehEntered="0"/>
    <interval begin="0.00" end="100.00" id=":567309184_3_0loop" nVehContrib="0" flow="0.00" occupancy="0.00" speed="-1.00" length="-1.00" nVehEntered="0"/>
    <interval begin="0.00" end="100.00" id=":567309184_4_0loop" nVehContrib="0" flow="0.00" occupancy="0.00" speed="-1.00" length="-1.00" nVehEntered="0"/>
    <interval begin="0.00" end="100.00" id=":567309184_5_0loop" nVehContrib="0" flow="0.00" occupancy="0.00" speed="-1.00" length="-1.00" nVehEntered="0"/>
    <interval begin="0.00" end="100.00" id=":567309184_6_0loop" nVehContrib="0" flow="0.00" occupancy="0.00" speed="-1.00" length="-1.00" nVehEntered="0"/>
    <interval begin="0.00" end="100.00" id=":567309184_7_0loop" nVehContrib="3" flow="108.00" occupancy="1.35" speed="11.59" length="5.00" nVehEntered="3"/>
    <interval begin="0.00" end="100.00" id=":567309184_8_0loop" nVehContrib="2" flow="72.00" occupancy="1.37" speed="7.42" length="5.00" nVehEntered="2"/>
    <interval begin="0.00" end="100.00" id=":567309184_9_0loop" nVehContrib="0" flow="0.00" occupancy="0.00" speed="-1.00" length="-1.00" nVehEntered="0"/>
    <interval begin="0.00" end="100.00" id=":567309186_0_0loop" nVehContrib="0" flow="0.00" occupancy="0.00" speed="-1.00" length="-1.00" nVehEntered="0"/>
    <interval begin="0.00" end="100.00" id=":567309218_0_0loop" nVehContrib="0" flow="0.00" occupancy="0.00" speed="-1.00" length="-1.00" nVehEntered="0"/>
    <interval begin="0.00" end="100.00" id=":567309218_10_0loop" nVehContrib="1" flow="36.00" occupancy="1.29" speed="3.88" length="5.00" nVehEntered="1"/>
    <interval begin="0.00" end="100.00" id=":567309218_11_0loop" nVehContrib="0" flow="0.00" occupancy="0.00" speed="-1.00" length="-1.00" nVehEntered="0"/>
    <interval begin="0.00" end="100.00" id=":567309218_12_0loop" nVehContrib="0" flow="0.00" occupancy="0.00" speed="-1.00" length="-1.00" nVehEntered="0"/>
    <interval begin="0.00" end="100.00" id=":567309218_1_0loop" nVehContrib="0" flow="0.00" occupancy="0.00" speed="-1.00" length="-1.00" nVehEntered="0"/>
    <interval begin="0.00" end="100.00" id=":567309218_2_0loop" nVehContrib="1" flow="36.00" occupancy="5.37" speed="0.93" length="5.00" nVehEntered="1"/>
    <interval begin="0.00" end="100.00" id=":567309218_3_0loop" nVehContrib="2" flow="72.00" occupancy="1.46" speed="9.01" length="5.00" nVehEntered="2"/>
    <interval begin="0.00" end="100.00" id=":567309218_4_0loop" nVehContrib="0" flow="0.00" occupancy="0.00" speed="-1.00" length="-1.00" nVehEntered="0"/>
    <interval begin="0.00" end="100.00" id=":567309218_5_0loop" nVehContrib="0" flow="0.00" occupancy="0.00" speed="-1.00" length="-1.00" nVehEntered="0"/>
    <interval begin="0.00" end="100.00" id=":567309218_6_0loop" nVehContrib="0" flow="0.00" occupancy="0.00" speed="-1.00" length="-1.00" nVehEntered="0"/>
    <interval begin="0.00" end="100.00" id=":567309218_7_0loop" nVehContrib="2" flow="72.00" occupancy="1.53" speed="6.60" length="5.00" nVehEntered="2"/>
    <interval begin="0.00" end="100.00" id=":567309218_8_0loop" nVehContrib="0" flow="0.00" occupancy="0.00" speed="-1.00" length="-1.00" nVehEntered="0"/>
    <interval begin="0.00" end="100.00" id=":567309218_9_0loop" nVehContrib="0" flow="0.00" occupancy="0.00" speed="-1.00" length="-1.00" nVehEntered="0"/>
    <interval begin="0.00" end="100.00" id=":567309220_0_0loop" nVehContrib="3" flow="108.00" occupancy="2.10" speed="7.30" length="5.00" nVehEntered="3"/>
    <interval begin="0.00" end="100.00" id=":567309220_10_0loop" nVehContrib="0" flow="0.00" occupancy="0.00" speed="-1.00" length="-1.00" nVehEntered="0"/>
    <interval begin="0.00" end="100.00" id=":567309220_11_0loop" nVehContrib="0" flow="0.00" occupancy="0.00" speed="-1.00" length="-1.00" nVehEntered="0"/>
    <interval begin="0.00" end="100.00" id=":567309220_12_0loop" nVehContrib="1" flow="36.00" occupancy="0.77" speed="6.48" length="5.00" nVehEntered="1"/>
    <interval begin="0.00" end="100.00" id=":567309220_1_0loop" nVehContrib="0" flow="0.00" occupancy="0.74" speed="-1.00" length="-1.00" nVehEntered="1"/>
    <interval begin="0.00" end="100.00" id=":567309220_2_0loop" nVehContrib="0" flow="0.00" occupancy="0.00" speed="-1.00" length="-1.00" nVehEntered="0"/>
    <interval begin="0.00" end="100.00" id=":567309220_3_0loop" nVehContrib="0" flow="0.00" occupancy="0.00" speed="-1.00" length="-1.00" nVehEntered="0"/>
    <interval begin="0.00" end="100.00" id=":567309220_4_0loop" nVehContrib="1" flow="36.00" occupancy="0.38" speed="13.22" length="5.00" nVehEntered="1"/>
    <interval begin="0.00" end="100.00" id=":567309220_5_0loop" nVehContrib="0" flow="0.00" occupancy="0.00" speed="-1.00" length="-1.00" nVehEntered="0"/>
    <interval begin="0.00" end="100.00" id=":567309220_6_0loop" nVehContrib="1" flow="36.00" occupancy="0.97" speed="5.13" length="5.00" nVehEntered="1"/>
    <interval begin="0.00" end="100.00" id=":567309220_7_0loop" nVehContrib="4" flow="144.00" occupancy="2.56" speed="8.15" length="5.00" nVehEntered="4"/>
    <interval begin="0.00" end="100.00" id=":567309220_8_0loop" nVehContrib="1" flow="36.00" occupancy="0.88" speed="5.66" length="5.00" nVehEntered="1"/>
    <interval begin="0.00" end="100.00" id=":567309220_9_0loop" nVehContrib="0" flow="0.00" occupancy="0.00" speed="-1.00" length="-1.00" nVehEntered="0"/>
    <interval begin="0.00" end="100.00" id=":567309243_0_0loop" nVehContrib="1" flow="36.00" occupancy="1.15" speed="4.33" length="5.00" nVehEntered="1"/>
    <interval begin="0.00" end="100.00" id=":567309243_10_0loop" nVehContrib="1" flow="36.00" occupancy="0.84" speed="5.92" length="5.00" nVehEntered="1"/>
    <interval begin="0.00" end="100.00" id=":567309243_11_0loop" nVehContrib="1" flow="36.00" occupancy="0.88" speed="5.68" length="5.00" nVehEntered="1"/>
    <interval begin="0.00" end="100.00" id=":567309243_12_0loop" nVehContrib="0" flow="0.00" occupancy="0.00" speed="-1.00" length="-1.00" nVehEntered="0"/>
    <interval begin="0.00" end="100.00" id=":567309243_13_0loop" nVehContrib="1" flow="36.00" occupancy="0.36" speed="13.85" length="5.00" nVehEntered="1"/>
    <interval begin="0.00" end="100.00" id=":567309243_14_0loop" nVehContrib="3" flow="108.00" occupancy="4.06" speed="5.09" length="5.00" nVehEntered="3"/>
    <interval begin="0.00" end="100.00" id=":567309243_15_0loop" nVehContrib="1" flow="36.00" occupancy="0.69" speed="7.24" length="5.00" nVehEntered="1"/>
    <interval begin="0.00" end="100.00" id=":567309243_16_0loop" nVehContrib="1" flow="36.00" occupancy="0.57" speed="8.74" length="5.00" nVehEntered="1"/>
    <interval begin="0.00" end="100.00" id=":567309243_17_0loop" nVehContrib="2" flow="72.00" occupancy="1.95" speed="6.91" length="5.00" nVehEntered="3"/>
    <interval begin="0.00" end="100.00" id=":567309243_18_0loop" nVehContrib="1" flow="36.00" occupancy="0.74" speed="6.72" length="5.00" nVehEntered="1"/>
    <interval begin="0.00" end="100.00" id=":567309243_19_0loop" nVehContrib="0" flow="0.00" occupancy="0.00" speed="-1.00" length="-1.00" nVehEntered="0"/>
    <interval begin="0.00" end="100.00" id=":567309243_1_0loop" nVehContrib="0" flow="0.00" occupancy="0.00" speed="-1.00" length="-1.00" nVehEntered="0"/>
    <interval begin="0.00" end="100.00" id=":567309243_20_0loop" nVehContrib="1" flow="36.00" occupancy="0.72" speed="6.98" length="5.00" nVehEntered="1"/>
    <interval begin="0.00" end="100.00" id=":567309243_21_0loop" nVehContrib="1" flow="36.00" occupancy="0.81" speed="6.20" length="5.00" nVehEntered="1"/>
    <interval begin="0.00" end="100.00" id=":567309243_22_0loop" nVehContrib="3" flow="108.00" occupancy="2.49" speed="6.58" length="5.00" nVehEntered="3"/>
    <interval begin="0.00" end="100.00" id=":567309243_23_0loop" nVehContrib="1" flow="36.00" occupancy="0.64" speed="7.87" length="5.00" nVehEntered="1"/>
    <interval begin="0.00" end="100.00" id=":567309243_2_0loop" nVehContrib="1" flow="36.00" occupancy="0.63" speed="7.89" length="5.00" nVehEntered="1"/>
    <interval begin="0.00" end="100.00" id=":567309243_3_0loop" nVehContrib="3" flow="108.00" occupancy="2.34" speed="6.50" length="5.00" nVehEntered="3"/>